HEADER
"PSFversion" "1.00"
"simulator" "HSPICE"
"version" "V-2023.12-SP2 linux64"
"rundate" "12:14:01 12/01/2024"
"runtitle" "* global nodes                                                                                                          "
"runtype" "Summary Information"
"temperature" "2.5000000e+01"
"op point time" "0.03"
"op point iterations" "15"
"transient time" "0.04"
"transient iterations" "516"
"total cpu time" "0.10"
"node value" "complete"
"operating point" "invalid"
"ac analysis" "invalid"
"dc sweep" "invalid"
"transient analysis" "complete"
TRAILER
END
